<?xml version="1.0" encoding="UTF-8"?>

<!-- generated on 4/20/2019 6:10:11 PM by SUMO gui Version 0.32.0
<?xml version="1.0" encoding="UTF-8"?>

<configuration xmlns:xsi="http://www.w3.org/2001/XMLSchema-instance" xsi:noNamespaceSchemaLocation="http://sumo.dlr.de/xsd/sumoConfiguration.xsd">

    <input>
        <net-file value="Chj_final.net.xml"/>
        <route-files value="Chj_Demand2.rou.xml"/>
        <additional-files value="loops.xml"/>
    </input>

    <output>
        <queue-output value="HTSCNqueue2.xml"/>
        <summary-output value="HTSCNsummary2.xml"/>
        <tripinfo-output value="HTSCNtrip2.xml"/>
    </output>

    <time>
        <begin value="0"/>
        <end value="3600"/>
    </time>

    <report>
        <xml-validation value="never"/>
        <duration-log.disable value="true"/>
        <no-step-log value="true"/>
    </report>

    <traci_server>
        <remote-port value="13333"/>
    </traci_server>

    <random_number>
        <seed value="45"/>
    </random_number>

</configuration>
-->

<queue-export xmlns:xsi="http://www.w3.org/2001/XMLSchema-instance" xsi:noNamespaceSchemaLocation="http://sumo.dlr.de/xsd/queue_file.xsd">
    <data timestep="0.00">
        <lanes/>
    </data>
    <data timestep="1.00">
        <lanes/>
    </data>
    <data timestep="2.00">
        <lanes/>
    </data>
    <data timestep="3.00">
        <lanes/>
    </data>
    <data timestep="4.00">
        <lanes/>
    </data>
    <data timestep="5.00">
        <lanes/>
    </data>
    <data timestep="6.00">
        <lanes/>
    </data>
    <data timestep="7.00">
        <lanes/>
    </data>
    <data timestep="8.00">
        <lanes/>
    </data>
    <data timestep="9.00">
        <lanes/>
    </data>
    <data timestep="10.00">
        <lanes/>
    </data>
    <data timestep="11.00">
        <lanes/>
    </data>
    <data timestep="12.00">
        <lanes/>
    </data>
    <data timestep="13.00">
        <lanes/>
    </data>
    <data timestep="14.00">
        <lanes/>
    </data>
    <data timestep="15.00">
        <lanes/>
    </data>
    <data timestep="16.00">
        <lanes/>
    </data>
    <data timestep="17.00">
        <lanes/>
    </data>
    <data timestep="18.00">
        <lanes/>
    </data>
    <data timestep="19.00">
        <lanes/>
    </data>
    <data timestep="20.00">
        <lanes/>
    </data>
    <data timestep="21.00">
        <lanes/>
    </data>
    <data timestep="22.00">
        <lanes/>
    </data>
    <data timestep="23.00">
        <lanes/>
    </data>
    <data timestep="24.00">
        <lanes/>
    </data>
    <data timestep="25.00">
        <lanes/>
    </data>
    <data timestep="26.00">
        <lanes/>
    </data>
    <data timestep="27.00">
        <lanes/>
    </data>
    <data timestep="28.00">
        <lanes/>
    </data>
    <data timestep="29.00">
        <lanes/>
    </data>
    <data timestep="30.00">
        <lanes/>
    </data>
    <data timestep="31.00">
        <lanes>
            <lane id="100323308#3_0" queueing_time="0.00" queueing_length="0.00" queueing_length_experimental="6.09"/>
        </lanes>
    </data>
    <data timestep="32.00">
        <lanes>
            <lane id="100323308#3_0" queueing_time="1.00" queueing_length="6.03" queueing_length_experimental="6.03"/>
        </lanes>
    </data>
    <data timestep="33.00">
        <lanes>
            <lane id="100323308#3_0" queueing_time="2.00" queueing_length="6.02" queueing_length_experimental="6.02"/>
        </lanes>
    </data>
    <data timestep="34.00">
        <lanes>
            <lane id="100323308#3_0" queueing_time="3.00" queueing_length="6.00" queueing_length_experimental="6.00"/>
        </lanes>
    </data>
    <data timestep="35.00">
        <lanes>
            <lane id="-135626767#7_0" queueing_time="0.00" queueing_length="0.00" queueing_length_experimental="6.01"/>
            <lane id="100323308#3_0" queueing_time="4.00" queueing_length="6.00" queueing_length_experimental="6.00"/>
        </lanes>
    </data>
    <data timestep="36.00">
        <lanes>
            <lane id="-135626767#7_0" queueing_time="1.00" queueing_length="6.00" queueing_length_experimental="6.00"/>
            <lane id="100323308#3_0" queueing_time="5.00" queueing_length="6.00" queueing_length_experimental="6.00"/>
            <lane id="OrigionW9_0" queueing_time="0.00" queueing_length="0.00" queueing_length_experimental="6.20"/>
            <lane id="38866846#2_0" queueing_time="0.00" queueing_length="0.00" queueing_length_experimental="6.35"/>
        </lanes>
    </data>
    <data timestep="37.00">
        <lanes>
            <lane id="-135626767#7_0" queueing_time="2.00" queueing_length="6.00" queueing_length_experimental="6.00"/>
            <lane id="100323308#3_0" queueing_time="6.00" queueing_length="6.00" queueing_length_experimental="6.00"/>
            <lane id="OrigionW9_0" queueing_time="0.00" queueing_length="0.00" queueing_length_experimental="6.01"/>
            <lane id="38866846#2_0" queueing_time="0.00" queueing_length="0.00" queueing_length_experimental="6.02"/>
        </lanes>
    </data>
    <data timestep="38.00">
        <lanes>
            <lane id="-135626767#7_0" queueing_time="3.00" queueing_length="6.00" queueing_length_experimental="6.00"/>
            <lane id="100323308#3_0" queueing_time="7.00" queueing_length="6.00" queueing_length_experimental="6.00"/>
            <lane id="135626769#0_0" queueing_time="1.00" queueing_length="6.04" queueing_length_experimental="6.04"/>
            <lane id="OrigionW9_0" queueing_time="1.00" queueing_length="6.00" queueing_length_experimental="6.00"/>
            <lane id="38866846#2_0" queueing_time="1.00" queueing_length="6.01" queueing_length_experimental="6.01"/>
            <lane id="OrigionE1_0" queueing_time="0.00" queueing_length="0.00" queueing_length_experimental="6.37"/>
        </lanes>
    </data>
    <data timestep="39.00">
        <lanes>
            <lane id="-135626767#7_0" queueing_time="4.00" queueing_length="6.00" queueing_length_experimental="6.00"/>
            <lane id="100323308#3_0" queueing_time="8.00" queueing_length="6.00" queueing_length_experimental="6.00"/>
            <lane id="135626769#0_0" queueing_time="2.00" queueing_length="6.01" queueing_length_experimental="6.01"/>
            <lane id="OrigionW9_0" queueing_time="2.00" queueing_length="6.00" queueing_length_experimental="13.55"/>
            <lane id="240833369#6_0" queueing_time="0.00" queueing_length="0.00" queueing_length_experimental="6.35"/>
            <lane id="38866846#2_0" queueing_time="2.00" queueing_length="6.00" queueing_length_experimental="6.00"/>
            <lane id="OrigionE1_0" queueing_time="0.00" queueing_length="0.00" queueing_length_experimental="6.07"/>
        </lanes>
    </data>
    <data timestep="40.00">
        <lanes>
            <lane id="-135626767#7_0" queueing_time="5.00" queueing_length="6.00" queueing_length_experimental="6.00"/>
            <lane id="100323308#3_0" queueing_time="9.00" queueing_length="6.00" queueing_length_experimental="6.00"/>
            <lane id="135626769#0_0" queueing_time="3.00" queueing_length="6.01" queueing_length_experimental="6.01"/>
            <lane id="OrigionW9_0" queueing_time="3.00" queueing_length="13.53" queueing_length_experimental="13.53"/>
            <lane id="240833369#6_0" queueing_time="0.00" queueing_length="0.00" queueing_length_experimental="6.08"/>
            <lane id="38866846#2_0" queueing_time="3.00" queueing_length="6.00" queueing_length_experimental="6.00"/>
            <lane id="85711505#2_0" queueing_time="1.00" queueing_length="6.05" queueing_length_experimental="6.05"/>
            <lane id="OrigionE1_0" queueing_time="1.00" queueing_length="6.01" queueing_length_experimental="6.01"/>
        </lanes>
    </data>
    <data timestep="41.00">
        <lanes>
            <lane id="135626769#0_0" queueing_time="4.00" queueing_length="6.00" queueing_length_experimental="6.00"/>
            <lane id="OrigionW9_0" queueing_time="4.00" queueing_length="6.00" queueing_length_experimental="6.00"/>
            <lane id="OrigionW9_1" queueing_time="2.00" queueing_length="13.51" queueing_length_experimental="13.51"/>
            <lane id="240833369#6_0" queueing_time="1.00" queueing_length="6.04" queueing_length_experimental="14.08"/>
            <lane id="38866846#2_0" queueing_time="4.00" queueing_length="6.00" queueing_length_experimental="6.00"/>
            <lane id="85711505#2_0" queueing_time="2.00" queueing_length="6.00" queueing_length_experimental="6.00"/>
            <lane id="OrigionE1_0" queueing_time="2.00" queueing_length="6.00" queueing_length_experimental="6.00"/>
        </lanes>
    </data>
    <data timestep="42.00">
        <lanes>
            <lane id="135626769#0_0" queueing_time="5.00" queueing_length="6.00" queueing_length_experimental="6.00"/>
            <lane id="OrigionW9_0" queueing_time="5.00" queueing_length="6.00" queueing_length_experimental="6.00"/>
            <lane id="240833369#6_0" queueing_time="2.00" queueing_length="6.02" queueing_length_experimental="13.64"/>
            <lane id="38866846#2_0" queueing_time="5.00" queueing_length="6.00" queueing_length_experimental="6.00"/>
            <lane id="85711505#2_0" queueing_time="3.00" queueing_length="6.00" queueing_length_experimental="6.00"/>
            <lane id="OrigionE1_0" queueing_time="3.00" queueing_length="6.00" queueing_length_experimental="6.00"/>
            <lane id="OrigionE3_0" queueing_time="0.00" queueing_length="0.00" queueing_length_experimental="6.06"/>
            <lane id="OrigionW2_0" queueing_time="0.00" queueing_length="0.00" queueing_length_experimental="5.00"/>
        </lanes>
    </data>
    <data timestep="43.00">
        <lanes>
            <lane id="135626769#0_0" queueing_time="6.00" queueing_length="6.00" queueing_length_experimental="6.00"/>
            <lane id="OrigionW9_0" queueing_time="6.00" queueing_length="6.00" queueing_length_experimental="6.00"/>
            <lane id="240833369#6_0" queueing_time="3.00" queueing_length="6.01" queueing_length_experimental="13.52"/>
            <lane id="38866846#2_0" queueing_time="6.00" queueing_length="6.00" queueing_length_experimental="6.00"/>
            <lane id="85711505#2_0" queueing_time="4.00" queueing_length="6.00" queueing_length_experimental="6.00"/>
            <lane id="OrigionE1_0" queueing_time="4.00" queueing_length="6.00" queueing_length_experimental="6.00"/>
            <lane id="OrigionE3_0" queueing_time="1.00" queueing_length="6.02" queueing_length_experimental="6.02"/>
            <lane id="OrigionW2_0" queueing_time="1.00" queueing_length="5.00" queueing_length_experimental="5.00"/>
        </lanes>
    </data>
    <data timestep="44.00">
        <lanes>
            <lane id="-230493745#1_0" queueing_time="0.00" queueing_length="0.00" queueing_length_experimental="6.73"/>
            <lane id="135626769#0_0" queueing_time="7.00" queueing_length="6.00" queueing_length_experimental="6.00"/>
            <lane id="OrigionW9_0" queueing_time="7.00" queueing_length="6.00" queueing_length_experimental="6.00"/>
            <lane id="OrigionW9_1" queueing_time="0.00" queueing_length="0.00" queueing_length_experimental="6.03"/>
            <lane id="240833369#6_0" queueing_time="4.00" queueing_length="13.51" queueing_length_experimental="13.51"/>
            <lane id="38866846#2_0" queueing_time="7.00" queueing_length="6.00" queueing_length_experimental="6.00"/>
            <lane id="85711505#2_0" queueing_time="5.00" queueing_length="6.00" queueing_length_experimental="6.00"/>
            <lane id="OrigionE1_0" queueing_time="5.00" queueing_length="6.00" queueing_length_experimental="6.00"/>
            <lane id="OrigionE3_0" queueing_time="2.00" queueing_length="6.01" queueing_length_experimental="6.01"/>
            <lane id="OrigionW2_0" queueing_time="2.00" queueing_length="5.00" queueing_length_experimental="5.00"/>
        </lanes>
    </data>
    <data timestep="45.00">
        <lanes>
            <lane id="135626769#0_0" queueing_time="8.00" queueing_length="6.00" queueing_length_experimental="6.00"/>
            <lane id="OrigionW9_0" queueing_time="8.00" queueing_length="6.00" queueing_length_experimental="6.00"/>
            <lane id="OrigionW9_1" queueing_time="1.00" queueing_length="6.01" queueing_length_experimental="6.01"/>
            <lane id="240833369#6_0" queueing_time="5.00" queueing_length="13.51" queueing_length_experimental="13.51"/>
            <lane id="38866846#2_0" queueing_time="8.00" queueing_length="6.00" queueing_length_experimental="6.00"/>
            <lane id="85711505#2_0" queueing_time="6.00" queueing_length="6.00" queueing_length_experimental="6.00"/>
            <lane id="OrigionE1_0" queueing_time="6.00" queueing_length="6.00" queueing_length_experimental="6.00"/>
            <lane id="OrigionE3_0" queueing_time="3.00" queueing_length="6.00" queueing_length_experimental="6.00"/>
            <lane id="OrigionE3_1" queueing_time="0.00" queueing_length="0.00" queueing_length_experimental="6.07"/>
            <lane id="OrigionW2_0" queueing_time="3.00" queueing_length="5.00" queueing_length_experimental="5.00"/>
        </lanes>
    </data>
    <data timestep="46.00">
        <lanes>
            <lane id="-69555386#1_0" queueing_time="0.00" queueing_length="0.00" queueing_length_experimental="6.32"/>
            <lane id="135626769#0_0" queueing_time="9.00" queueing_length="6.00" queueing_length_experimental="6.00"/>
            <lane id="OrigionW9_0" queueing_time="9.00" queueing_length="6.00" queueing_length_experimental="6.00"/>
            <lane id="OrigionW9_1" queueing_time="2.00" queueing_length="6.00" queueing_length_experimental="6.00"/>
            <lane id="240833369#6_0" queueing_time="6.00" queueing_length="13.50" queueing_length_experimental="13.50"/>
            <lane id="38866846#2_0" queueing_time="9.00" queueing_length="6.00" queueing_length_experimental="6.00"/>
            <lane id="85711505#2_0" queueing_time="7.00" queueing_length="6.00" queueing_length_experimental="6.00"/>
            <lane id="OrigionE1_0" queueing_time="7.00" queueing_length="6.00" queueing_length_experimental="6.00"/>
            <lane id="OrigionE3_0" queueing_time="4.00" queueing_length="6.00" queueing_length_experimental="6.00"/>
            <lane id="OrigionE3_1" queueing_time="1.00" queueing_length="6.03" queueing_length_experimental="6.03"/>
            <lane id="OrigionW2_0" queueing_time="4.00" queueing_length="5.00" queueing_length_experimental="5.00"/>
        </lanes>
    </data>
    <data timestep="47.00">
        <lanes>
            <lane id="-69555386#1_0" queueing_time="0.00" queueing_length="0.00" queueing_length_experimental="6.05"/>
            <lane id="135626769#0_0" queueing_time="10.00" queueing_length="6.00" queueing_length_experimental="6.00"/>
            <lane id="OrigionW9_0" queueing_time="10.00" queueing_length="6.00" queueing_length_experimental="6.00"/>
            <lane id="OrigionW9_1" queueing_time="3.00" queueing_length="6.00" queueing_length_experimental="6.00"/>
            <lane id="240833369#6_0" queueing_time="7.00" queueing_length="13.50" queueing_length_experimental="13.50"/>
            <lane id="38866846#2_0" queueing_time="10.00" queueing_length="6.00" queueing_length_experimental="6.00"/>
            <lane id="85711505#2_0" queueing_time="8.00" queueing_length="6.00" queueing_length_experimental="6.00"/>
            <lane id="OrigionE1_0" queueing_time="8.00" queueing_length="6.00" queueing_length_experimental="6.00"/>
            <lane id="OrigionE3_0" queueing_time="5.00" queueing_length="6.00" queueing_length_experimental="6.00"/>
            <lane id="OrigionE3_1" queueing_time="2.00" queueing_length="6.01" queueing_length_experimental="6.01"/>
            <lane id="OrigionW2_0" queueing_time="5.00" queueing_length="5.00" queueing_length_experimental="5.00"/>
        </lanes>
    </data>
    <data timestep="48.00">
        <lanes>
            <lane id="-69555386#1_0" queueing_time="1.00" queueing_length="6.03" queueing_length_experimental="6.03"/>
            <lane id="135626769#0_0" queueing_time="11.00" queueing_length="6.00" queueing_length_experimental="6.00"/>
            <lane id="OrigionW9_0" queueing_time="11.00" queueing_length="6.00" queueing_length_experimental="6.00"/>
            <lane id="OrigionW9_1" queueing_time="4.00" queueing_length="6.00" queueing_length_experimental="6.00"/>
            <lane id="240833369#6_0" queueing_time="8.00" queueing_length="13.50" queueing_length_experimental="13.50"/>
            <lane id="38866846#2_0" queueing_time="11.00" queueing_length="6.00" queueing_length_experimental="6.00"/>
            <lane id="85711505#2_0" queueing_time="9.00" queueing_length="6.00" queueing_length_experimental="6.00"/>
            <lane id="OrigionE1_0" queueing_time="9.00" queueing_length="6.00" queueing_length_experimental="6.00"/>
            <lane id="OrigionE3_0" queueing_time="6.00" queueing_length="6.00" queueing_length_experimental="6.00"/>
            <lane id="OrigionE3_1" queueing_time="3.00" queueing_length="6.00" queueing_length_experimental="6.00"/>
            <lane id="OrigionW2_0" queueing_time="6.00" queueing_length="5.00" queueing_length_experimental="5.00"/>
        </lanes>
    </data>
    <data timestep="49.00">
        <lanes>
            <lane id="-69555386#1_0" queueing_time="2.00" queueing_length="6.00" queueing_length_experimental="6.00"/>
            <lane id="135626769#0_0" queueing_time="12.00" queueing_length="6.00" queueing_length_experimental="6.00"/>
            <lane id="OrigionW9_0" queueing_time="12.00" queueing_length="6.00" queueing_length_experimental="6.00"/>
            <lane id="OrigionW9_1" queueing_time="5.00" queueing_length="6.00" queueing_length_experimental="6.00"/>
            <lane id="240833369#6_0" queueing_time="9.00" queueing_length="13.50" queueing_length_experimental="13.50"/>
            <lane id="38866846#2_0" queueing_time="12.00" queueing_length="6.00" queueing_length_experimental="6.00"/>
            <lane id="85711505#2_0" queueing_time="10.00" queueing_length="6.00" queueing_length_experimental="6.00"/>
            <lane id="OrigionE1_0" queueing_time="10.00" queueing_length="6.00" queueing_length_experimental="6.00"/>
            <lane id="OrigionE3_0" queueing_time="7.00" queueing_length="6.00" queueing_length_experimental="6.00"/>
            <lane id="OrigionE3_1" queueing_time="4.00" queueing_length="6.00" queueing_length_experimental="6.00"/>
            <lane id="OrigionW2_0" queueing_time="7.00" queueing_length="5.00" queueing_length_experimental="5.00"/>
        </lanes>
    </data>
    <data timestep="50.00">
        <lanes>
            <lane id="-69555386#1_0" queueing_time="3.00" queueing_length="6.00" queueing_length_experimental="6.00"/>
            <lane id="135626769#0_0" queueing_time="13.00" queueing_length="6.00" queueing_length_experimental="6.00"/>
            <lane id="230239443#0_0" queueing_time="0.00" queueing_length="0.00" queueing_length_experimental="6.20"/>
            <lane id="OrigionW9_0" queueing_time="13.00" queueing_length="6.00" queueing_length_experimental="6.00"/>
            <lane id="OrigionW9_1" queueing_time="6.00" queueing_length="6.00" queueing_length_experimental="6.00"/>
            <lane id="240833369#6_0" queueing_time="10.00" queueing_length="13.50" queueing_length_experimental="13.50"/>
            <lane id="38866846#2_0" queueing_time="13.00" queueing_length="6.00" queueing_length_experimental="6.00"/>
            <lane id="85711505#2_0" queueing_time="11.00" queueing_length="6.00" queueing_length_experimental="6.00"/>
            <lane id="OrigionE1_0" queueing_time="11.00" queueing_length="6.00" queueing_length_experimental="6.00"/>
            <lane id="OrigionE3_0" queueing_time="8.00" queueing_length="6.00" queueing_length_experimental="6.00"/>
            <lane id="OrigionE3_1" queueing_time="5.00" queueing_length="6.00" queueing_length_experimental="6.00"/>
            <lane id="OrigionW2_0" queueing_time="8.00" queueing_length="5.00" queueing_length_experimental="5.00"/>
        </lanes>
    </data>
    <data timestep="51.00">
        <lanes>
            <lane id="-69555386#1_0" queueing_time="4.00" queueing_length="6.00" queueing_length_experimental="6.00"/>
            <lane id="135626769#0_0" queueing_time="14.00" queueing_length="6.00" queueing_length_experimental="6.00"/>
            <lane id="230239443#0_0" queueing_time="0.00" queueing_length="0.00" queueing_length_experimental="6.10"/>
            <lane id="OrigionW9_0" queueing_time="14.00" queueing_length="6.00" queueing_length_experimental="6.00"/>
            <lane id="OrigionW9_1" queueing_time="7.00" queueing_length="6.00" queueing_length_experimental="6.00"/>
            <lane id="240833369#6_0" queueing_time="11.00" queueing_length="13.50" queueing_length_experimental="13.50"/>
            <lane id="38866846#2_0" queueing_time="14.00" queueing_length="6.00" queueing_length_experimental="6.00"/>
            <lane id="85711505#2_0" queueing_time="12.00" queueing_length="6.00" queueing_length_experimental="6.00"/>
            <lane id="OrigionE1_0" queueing_time="12.00" queueing_length="6.00" queueing_length_experimental="6.00"/>
            <lane id="OrigionE3_0" queueing_time="9.00" queueing_length="6.00" queueing_length_experimental="6.00"/>
            <lane id="OrigionE3_1" queueing_time="6.00" queueing_length="6.00" queueing_length_experimental="6.00"/>
            <lane id="OrigionW2_0" queueing_time="9.00" queueing_length="5.00" queueing_length_experimental="5.00"/>
        </lanes>
    </data>
    <data timestep="52.00">
        <lanes>
            <lane id="-492979895#2_0" queueing_time="0.00" queueing_length="0.00" queueing_length_experimental="6.05"/>
            <lane id="-69555386#1_0" queueing_time="5.00" queueing_length="6.00" queueing_length_experimental="6.00"/>
            <lane id="135626769#0_0" queueing_time="15.00" queueing_length="6.00" queueing_length_experimental="6.00"/>
            <lane id="230239443#0_0" queueing_time="1.00" queueing_length="6.04" queueing_length_experimental="6.04"/>
            <lane id="OrigionW9_0" queueing_time="15.00" queueing_length="6.00" queueing_length_experimental="6.00"/>
            <lane id="OrigionW9_1" queueing_time="8.00" queueing_length="6.00" queueing_length_experimental="6.00"/>
            <lane id="240833369#6_0" queueing_time="12.00" queueing_length="13.50" queueing_length_experimental="13.50"/>
            <lane id="OrigionW8_0" queueing_time="0.00" queueing_length="0.00" queueing_length_experimental="6.14"/>
            <lane id="38866846#2_0" queueing_time="15.00" queueing_length="6.00" queueing_length_experimental="6.00"/>
            <lane id="85711505#2_0" queueing_time="13.00" queueing_length="6.00" queueing_length_experimental="6.00"/>
            <lane id="OrigionE1_0" queueing_time="13.00" queueing_length="6.00" queueing_length_experimental="6.00"/>
            <lane id="OrigionE3_0" queueing_time="10.00" queueing_length="6.00" queueing_length_experimental="6.00"/>
            <lane id="OrigionE3_1" queueing_time="7.00" queueing_length="6.00" queueing_length_experimental="6.00"/>
            <lane id="OrigionW2_0" queueing_time="10.00" queueing_length="5.00" queueing_length_experimental="5.00"/>
        </lanes>
    </data>
    <data timestep="53.00">
        <lanes>
            <lane id="-492979895#2_0" queueing_time="1.00" queueing_length="6.01" queueing_length_experimental="6.01"/>
            <lane id="-69555386#1_0" queueing_time="6.00" queueing_length="6.00" queueing_length_experimental="6.00"/>
            <lane id="135626769#0_0" queueing_time="16.00" queueing_length="6.00" queueing_length_experimental="6.00"/>
            <lane id="230239443#0_0" queueing_time="2.00" queueing_length="6.00" queueing_length_experimental="6.00"/>
            <lane id="OrigionW9_0" queueing_time="16.00" queueing_length="6.00" queueing_length_experimental="6.00"/>
            <lane id="OrigionW9_1" queueing_time="9.00" queueing_length="6.00" queueing_length_experimental="6.00"/>
            <lane id="240833369#6_0" queueing_time="13.00" queueing_length="13.50" queueing_length_experimental="13.50"/>
            <lane id="OrigionW8_0" queueing_time="0.00" queueing_length="0.00" queueing_length_experimental="6.03"/>
            <lane id="38866846#2_0" queueing_time="16.00" queueing_length="6.00" queueing_length_experimental="6.00"/>
            <lane id="85711505#2_0" queueing_time="14.00" queueing_length="6.00" queueing_length_experimental="6.00"/>
            <lane id="OrigionE1_0" queueing_time="14.00" queueing_length="6.00" queueing_length_experimental="6.00"/>
            <lane id="OrigionE3_0" queueing_time="11.00" queueing_length="6.00" queueing_length_experimental="6.00"/>
            <lane id="OrigionE3_1" queueing_time="8.00" queueing_length="6.00" queueing_length_experimental="6.00"/>
            <lane id="OrigionN1_0" queueing_time="0.00" queueing_length="0.00" queueing_length_experimental="6.37"/>
            <lane id="OrigionW2_0" queueing_time="11.00" queueing_length="5.00" queueing_length_experimental="5.00"/>
        </lanes>
    </data>
    <data timestep="54.00">
        <lanes>
            <lane id="-492979895#2_0" queueing_time="2.00" queueing_length="6.00" queueing_length_experimental="6.00"/>
            <lane id="-69555386#1_0" queueing_time="7.00" queueing_length="6.00" queueing_length_experimental="6.00"/>
            <lane id="135626769#0_0" queueing_time="17.00" queueing_length="6.00" queueing_length_experimental="6.00"/>
            <lane id="230239443#0_0" queueing_time="3.00" queueing_length="6.00" queueing_length_experimental="6.00"/>
            <lane id="OrigionW9_0" queueing_time="17.00" queueing_length="6.00" queueing_length_experimental="13.64"/>
            <lane id="OrigionW9_1" queueing_time="10.00" queueing_length="6.00" queueing_length_experimental="6.00"/>
            <lane id="240833369#6_0" queueing_time="14.00" queueing_length="13.50" queueing_length_experimental="13.50"/>
            <lane id="OrigionW8_0" queueing_time="1.00" queueing_length="6.00" queueing_length_experimental="6.00"/>
            <lane id="38866846#2_0" queueing_time="17.00" queueing_length="6.00" queueing_length_experimental="13.61"/>
            <lane id="85711505#2_0" queueing_time="15.00" queueing_length="6.00" queueing_length_experimental="6.00"/>
            <lane id="OrigionE1_0" queueing_time="15.00" queueing_length="6.00" queueing_length_experimental="6.00"/>
            <lane id="OrigionE3_0" queueing_time="12.00" queueing_length="6.00" queueing_length_experimental="6.00"/>
            <lane id="OrigionE3_1" queueing_time="9.00" queueing_length="6.00" queueing_length_experimental="6.00"/>
            <lane id="OrigionN1_0" queueing_time="0.00" queueing_length="0.00" queueing_length_experimental="6.13"/>
            <lane id="OrigionW2_0" queueing_time="12.00" queueing_length="5.00" queueing_length_experimental="5.00"/>
        </lanes>
    </data>
    <data timestep="55.00">
        <lanes>
            <lane id="-492979895#2_0" queueing_time="3.00" queueing_length="6.00" queueing_length_experimental="6.00"/>
            <lane id="-69555386#1_0" queueing_time="8.00" queueing_length="6.00" queueing_length_experimental="6.00"/>
            <lane id="135626769#0_0" queueing_time="18.00" queueing_length="13.53" queueing_length_experimental="13.53"/>
            <lane id="230239443#0_0" queueing_time="4.00" queueing_length="6.00" queueing_length_experimental="6.00"/>
            <lane id="OrigionW9_0" queueing_time="18.00" queueing_length="13.55" queueing_length_experimental="13.55"/>
            <lane id="OrigionW9_1" queueing_time="11.00" queueing_length="6.00" queueing_length_experimental="6.00"/>
            <lane id="240833369#6_0" queueing_time="15.00" queueing_length="13.50" queueing_length_experimental="13.50"/>
            <lane id="OrigionW8_0" queueing_time="2.00" queueing_length="6.00" queueing_length_experimental="6.00"/>
            <lane id="38866846#2_0" queueing_time="18.00" queueing_length="13.55" queueing_length_experimental="13.55"/>
            <lane id="85711505#2_0" queueing_time="16.00" queueing_length="6.00" queueing_length_experimental="6.00"/>
            <lane id="OrigionE1_0" queueing_time="16.00" queueing_length="6.00" queueing_length_experimental="6.00"/>
            <lane id="OrigionE3_0" queueing_time="13.00" queueing_length="6.00" queueing_length_experimental="6.00"/>
            <lane id="OrigionE3_1" queueing_time="10.00" queueing_length="6.00" queueing_length_experimental="6.00"/>
            <lane id="OrigionN1_0" queueing_time="1.00" queueing_length="6.04" queueing_length_experimental="6.04"/>
            <lane id="OrigionW2_0" queueing_time="13.00" queueing_length="5.00" queueing_length_experimental="5.00"/>
        </lanes>
    </data>
    <data timestep="56.00">
        <lanes>
            <lane id="-492979895#2_0" queueing_time="4.00" queueing_length="6.00" queueing_length_experimental="6.00"/>
            <lane id="-69555386#1_0" queueing_time="9.00" queueing_length="6.00" queueing_length_experimental="6.00"/>
            <lane id="135626769#0_0" queueing_time="19.00" queueing_length="13.51" queueing_length_experimental="13.51"/>
            <lane id="230239443#0_0" queueing_time="5.00" queueing_length="6.00" queueing_length_experimental="6.00"/>
            <lane id="OrigionW9_0" queueing_time="19.00" queueing_length="13.51" queueing_length_experimental="13.51"/>
            <lane id="OrigionW9_1" queueing_time="12.00" queueing_length="6.00" queueing_length_experimental="6.00"/>
            <lane id="240833369#6_0" queueing_time="16.00" queueing_length="13.50" queueing_length_experimental="13.50"/>